water trajectory
1.0
  10.000000   0.000000   0.000000
   0.000000  10.000000   0.000000
   0.000000   0.000000  10.000000
O H
1 2
Direct configuration=     1
  0.000000  0.000000  0.000000
  0.075700  0.058600  0.000000
 -0.075700  0.058600  0.000000
Direct configuration=     2
  0.010000  0.000000  0.000000
  0.085700  0.058600  0.000000
 -0.065700  0.058600  0.000000
